Formula,color,symmetry,space group,No,Pearson symbol,a (pm),b (pm),c (pm),Z,"density, g/cm3",Extra_Data_1,Dummy_Col_2
PaBr4,brown,tetragonal,I41/amd,141,tI20,882.4,882.4,795.7,,,133,eMPfrzD
PaCl5,yellow,monoclinic,C2/c,15,mS24,797,1135,836,4,3.74,920,kPZWZ
PaBr5,red,monoclinic,P21/c,14,mP24,838.5,1120.5,1214.6,4,4.98,201,ELlkYa
PaOBr3,,monoclinic,C2,,,1691.1,387.1,933.4,,,814,ofuvWmp
Pa(PO3)4,,orthorhombic,,,,696.9,895.9,1500.9,,,672,xTLUn
Pa2P2O7,,cubic,Pa3,,,865,865,865,,,549,FdDuYNM
Pa(C8H8)2,golden-yellow,monoclinic,,,,709,875,1062,,,373,HRaWN