Formula,color,symmetry,space group,No,Pearson symbol,a (pm),b (pm),c (pm),Z,"density, g/cm3",Irrelevant_1,Irrelevant_2
PaBr5,red,monoclinic,P21/c,14,mP24,838.5,1120.5,1214.6,4,4.98,lJsUV,qkSjBUqH
PaOBr3,,monoclinic,C2,,,1691.1,387.1,933.4,,,PulH8L4,6vOG3WUi
Pa(PO3)4,,orthorhombic,,,,696.9,895.9,1500.9,,,FQGhe,HXDS2k
Pa2P2O7,,cubic,Pa3,,,865,865,865,,,Yl1vBR,dIhbz
Pa(C8H8)2,golden-yellow,monoclinic,,,,709,875,1062,,,Qcu4uR1,mOlFoQ